,Catalyst Materials,Family,ΔGOH*,ΔGO*,ΔGOOH*,"Overpotential at xx (nearby) current density vs RHE, V","Reaction (HER, HRR, OER, ORR)",ΔGO*-ΔGOH*,ΔGOOH*-ΔGO*,composition,material id,band gap,chemsys,cluster
757,TmPdO3,Perovskite,0.83,2.89,3.82,1.25,OER,2.06,0.9299999999999997,Tm1 Pd1 O3,,,,4
758,TmPtO3,Perovskite,0.47,2.46,3.61,1.3,OER,1.99,1.15,Tm1 Pt1 O3,,,,4
763,TmSbO3,Perovskite,-0.29,1.73,3.36,1.49,OER,2.02,1.63,Tm1 Sb1 O3,,,,4
768,TmTeO3,Perovskite,0.04,2.09,3.52,1.6,OER,2.05,1.4300000000000002,Tm1 Te1 O3,,,,4
769,TmTiO3,Perovskite,0.78,2.92,4.09,1.55,OER,2.1399999999999997,1.17,Tm1 Ti1 O3,mp-755525,0.0,O-Ti-Tm,4
775,YbAlO3,Perovskite,1.96,4.24,4.93,1.72,OER,2.2800000000000002,0.6899999999999995,Yb1 Al1 O3,mp-1188667,0.0,Al-O-Yb,4
776,YbBiO3,Perovskite,1.05,3.29,4.2,1.36,OER,2.24,0.9100000000000001,Yb1 Bi1 O3,mp-937870,0.0,Bi-O-Yb,4
779,YbCuO3,Perovskite,1.72,4.13,4.75,1.39,OER,2.41,0.6200000000000001,Yb1 Cu1 O3,mp-1187562,0.0,Cu-O-Yb,4
783,YBiO3,Perovskite,1.07,3.27,4.19,1.52,OER,2.2,0.9200000000000004,Y1 Bi1 O3,mp-1424898,0.0,Bi-O-Y,4
788,YbNiO3,Perovskite,1.48,3.52,4.29,1.2,OER,2.04,0.77,Yb1 Ni1 O3,mp-19249,0.0,Ni-O-Yb,4
791,YbPdO3,Perovskite,0.88,3.09,3.84,1.21,OER,2.21,0.75,Yb1 Pd1 O3,mp-1187570,0.0,O-Pd-Yb,4
792,YbPtO3,Perovskite,0.51,2.67,3.59,1.24,OER,2.16,0.9199999999999999,Yb1 Pt1 O3,mp-1187480,0.0,O-Pt-Yb,4
797,YbSbO3,Perovskite,-0.26,1.9,3.34,1.27,OER,2.16,1.44,Yb1 Sb1 O3,,,,4
802,YbTeO3,Perovskite,0.08,2.26,3.54,1.4,OER,2.1799999999999997,1.2800000000000002,Yb1 Te1 O3,,,,4
803,YbTiO3,Perovskite,1.51,3.62,4.81,1.41,OER,2.1100000000000003,1.1899999999999995,Yb1 Ti1 O3,mp-865218,1.8974999999999995,O-Ti-Yb,4
818,YNiO3,Perovskite,1.27,3.35,3.62,0.84,OER,2.08,0.27,Y1 Ni1 O3,mp-1399857,0.0,Ni-O-Y,4
819,YNpO3,Perovskite,1.0,2.88,4.23,1.85,OER,1.88,1.3500000000000005,Y1 Np1 O3,,,,4
820,YPdO3,Perovskite,0.96,3.31,3.84,1.1,OER,2.35,0.5299999999999998,Y1 Pd1 O3,,,,4
821,YPuO3,Perovskite,0.93,2.72,4.26,1.77,OER,1.79,1.5399999999999996,Y1 Pu1 O3,,,,4
824,YSbO3,Perovskite,-0.11,2.05,3.44,1.39,OER,2.1599999999999997,1.3900000000000001,Y1 Sb1 O3,mp-1389035,1.4299,O-Sb-Y,4
828,YUO3,Perovskite,0.81,2.59,4.09,1.72,OER,1.7799999999999998,1.5,Y1 U1 O3,,,,4