,Catalyst Materials,Family,ΔGOH*,ΔGO*,ΔGOOH*,"Overpotential at xx (nearby) current density vs RHE, V","Reaction (HER, HRR, OER, ORR)",ΔGO*-ΔGOH*,ΔGOOH*-ΔGO*,composition,material id,band gap,chemsys,cluster
2,AgCoO3,Perovskite,1.59,3.28,4.66,0.92,OER,1.6899999999999997,1.3800000000000003,Ag1 Co1 O3,mp-753992,0.0,Ag-Co-O,3
5,AgFeO3,Perovskite,1.71,3.57,4.85,0.74,OER,1.8599999999999999,1.2799999999999998,Ag1 Fe1 O3,mp-1184234,0.0,Ag-Fe-O,3
8,AgIrO3,Perovskite,0.93,2.51,4.02,0.71,OER,1.5799999999999996,1.5099999999999998,Ag1 Ir1 O3,,,,3
9,AgMnO3,Perovskite,1.57,3.14,4.78,0.77,OER,1.57,1.6400000000000001,Ag1 Mn1 O3,mp-754229,0.0,Ag-Mn-O,3
20,AgRhO3,Perovskite,0.32,2.2,3.34,0.8,OER,1.8800000000000001,1.1399999999999997,Ag1 Rh1 O3,,,,3
21,AgRuO3,Perovskite,0.65,2.35,3.84,0.65,OER,1.7000000000000002,1.4899999999999998,Ag1 Ru1 O3,mp-776168,0.0,Ag-O-Ru,3
42,BaCrO3,Perovskite,1.47,2.56,4.79,1.01,OER,1.09,2.23,Ba1 Cr1 O3,mp-19271,0.0,Ba-Cr-O,3
51,BaIrO3,Perovskite,1.85,3.22,5.18,0.73,OER,1.37,1.9599999999999995,Ba1 Ir1 O3,mp-4307,0.0,Ba-Ir-O,3
52,BaIrO3,Perovskite,0.84,2.12,3.89,0.54,OER,1.2800000000000002,1.77,Ba1 Ir1 O3,mp-4307,0.0,Ba-Ir-O,3
53,BaMnO3,Perovskite,1.89,3.25,5.07,0.74,OER,1.36,1.8200000000000003,Ba1 Mn1 O3,mp-757501,0.0,Ba-Mn-O,3
63,BaPtO3,Perovskite,1.12,2.94,3.99,0.6,OER,1.8199999999999998,1.0500000000000003,Ba1 Pt1 O3,mp-1214788,0.4158999999999997,Ba-O-Pt,3
65,BaRhO3,Perovskite,0.66,2.19,3.52,0.3,OER,1.5299999999999998,1.33,Ba1 Rh1 O3,mp-7685,0.0,Ba-O-Rh,3
66,BaRuO3,Perovskite,0.5,1.96,3.46,0.27,OER,1.46,1.5,Ba1 Ru1 O3,mp-3597,0.0,Ba-O-Ru,3
81,BaVO3,Perovskite,1.07,2.31,4.53,0.99,OER,1.24,2.22,Ba1 V1 O3,mp-1017465,0.0,Ba-O-V,3
88,BeIrO3,Perovskite,1.65,3.08,4.95,0.64,OER,1.4300000000000002,1.87,Be1 Ir1 O3,,,,3
92,CaCoO3,Perovskite,2.07,3.54,5.02,1.05,OER,1.4700000000000002,1.4799999999999995,Ca1 Co1 O3,mp-1399298,0.0,Ca-Co-O,3
93,CaCrO3,Perovskite,1.15,2.51,4.46,1.09,OER,1.3599999999999999,1.9500000000000002,Ca1 Cr1 O3,mp-20772,0.40690000000000026,Ca-Cr-O,3
99,CaIrO3,Perovskite,1.0,2.47,4.21,0.72,OER,1.4700000000000002,1.7399999999999998,Ca1 Ir1 O3,mp-4243,0.0,Ca-Ir-O,3
100,CaMnO3,Perovskite,1.81,3.38,5.05,0.58,OER,1.5699999999999998,1.67,Ca1 Mn1 O3,mp-1017467,0.0,Ca-Mn-O,3
110,CaRhO3,Perovskite,0.47,2.23,3.45,0.8,OER,1.76,1.2200000000000002,Ca1 Rh1 O3,mp-1193602,0.0,Ca-O-Rh,3
111,CaRuO3,Perovskite,0.81,2.44,4.05,0.7,OER,1.63,1.6099999999999999,Ca1 Ru1 O3,mp-20947,0.0,Ca-O-Ru,3
121,CaVO3,Perovskite,0.93,2.16,4.36,0.97,OER,1.23,2.2,Ca1 V1 O3,mp-22608,0.43389999999999995,Ca-O-V,3
125,CdCoO3,Perovskite,1.87,3.14,4.9,0.96,OER,1.27,1.7600000000000002,Cd1 Co1 O3,mp-752746,0.0,Cd-Co-O,3
127,CdFeO3,Perovskite,1.92,3.45,5.04,0.77,OER,1.5300000000000002,1.5899999999999999,Cd1 Fe1 O3,mp-1639105,0.0,Cd-Fe-O,3
130,CdIrO3,Perovskite,0.74,2.08,3.88,0.73,OER,1.34,1.7999999999999998,Cd1 Ir1 O3,mp-2647004,0.0,Cd-Ir-O,3
131,CdMnO3,Perovskite,1.76,3.05,4.95,0.79,OER,1.2899999999999998,1.9000000000000004,Cd1 Mn1 O3,mp-1016854,0.0,Cd-Mn-O,3
141,CdRhO3,Perovskite,0.25,1.81,3.25,0.85,OER,1.56,1.44,Cd1 Rh1 O3,mp-1016875,0.0,Cd-O-Rh,3
142,CdRuO3,Perovskite,0.49,1.92,3.67,0.67,OER,1.43,1.75,Cd1 Ru1 O3,mp-1016849,0.0,Cd-O-Ru,3
154,CeCoO3,Perovskite,1.31,2.93,4.37,0.92,OER,1.62,1.44,Ce1 Co1 O3,,,,3
157,CeFeO3,Perovskite,1.49,3.15,4.64,0.71,OER,1.66,1.4899999999999998,Ce1 Fe1 O3,mp-864636,0.0,Ce-Fe-O,3
160,CeIrO3,Perovskite,0.35,1.68,3.64,0.73,OER,1.33,1.9600000000000002,Ce1 Ir1 O3,,,,3
162,CeMnO3,Perovskite,1.35,2.66,4.59,0.81,OER,1.31,1.9299999999999997,Ce1 Mn1 O3,mp-1183706,0.0,Ce-Mn-O,3
170,CeRhO3,Perovskite,-0.02,1.51,3.17,0.91,OER,1.53,1.66,Ce1 Rh1 O3,mp-1213826,0.0,Ce-O-Rh,3
171,CeRuO3,Perovskite,0.29,1.65,3.57,0.73,OER,1.3599999999999999,1.92,Ce1 Ru1 O3,,,,3
179,Co0.5Ir0.5O2,Bimetallic oxide,0.65,2.0,3.62,0.39,OER,1.35,1.62,Co0.5 Ir0.5 O2,,,,3
180,Co0.5Ir0.5O2,Bimetallic oxide,0.65,2.33,3.94,0.45,OER,1.6800000000000002,1.6099999999999999,Co0.5 Ir0.5 O2,,,,3
181,Co0.5Ir0.5O2,Bimetallic oxide,0.61,1.96,3.62,0.43,OER,1.35,1.6600000000000001,Co0.5 Ir0.5 O2,,,,3
185,DyCoO3,Perovskite,1.31,3.12,4.43,0.87,OER,1.81,1.3099999999999996,Dy1 Co1 O3,mp-22137,1.1923999999999997,Co-Dy-O,3
188,DyFeO3,Perovskite,1.26,3.23,4.47,0.67,OER,1.97,1.2399999999999998,Dy1 Fe1 O3,mp-22283,0.9134000000000002,Dy-Fe-O,3
192,DyIrO3,Perovskite,0.57,1.78,3.8,0.65,OER,1.21,2.0199999999999996,Dy1 Ir1 O3,,,,3
193,DyMnO3,Perovskite,1.19,2.73,4.4,0.76,OER,1.54,1.6700000000000004,Dy1 Mn1 O3,mp-542479,0.0,Dy-Mn-O,3
203,DyRhO3,Perovskite,0.08,1.46,3.27,0.76,OER,1.38,1.81,Dy1 Rh1 O3,mp-1212884,0.8883000000000001,Dy-O-Rh,3
204,DyRuO3,Perovskite,0.4,1.65,3.68,0.65,OER,1.25,2.0300000000000002,Dy1 Ru1 O3,,,,3
218,ErCoO3,Perovskite,1.25,3.03,4.38,0.86,OER,1.7799999999999998,1.35,Er1 Co1 O3,mp-562779,1.4471000000000003,Co-Er-O,3
221,ErFeO3,Perovskite,1.21,3.12,4.42,0.67,OER,1.9100000000000001,1.2999999999999998,Er1 Fe1 O3,mp-19935,1.3727,Er-Fe-O,3
224,ErIrO3,Perovskite,0.47,1.67,3.71,0.66,OER,1.2,2.04,Er1 Ir1 O3,mp-1184162,0.0,Er-Ir-O,3
225,ErMnO3,Perovskite,1.14,2.62,4.35,0.75,OER,1.4800000000000002,1.7299999999999995,Er1 Mn1 O3,mp-19217,0.24109999999999987,Er-Mn-O,3
232,ErRhO3,Perovskite,0.03,1.4,3.23,0.8,OER,1.3699999999999999,1.83,Er1 Rh1 O3,mp-1213022,0.9642,Er-O-Rh,3
233,ErRuO3,Perovskite,0.36,1.59,3.67,0.68,OER,1.23,2.08,Er1 Ru1 O3,,,,3
242,EuCoO3,Perovskite,1.55,3.02,4.68,0.96,OER,1.47,1.6599999999999997,Eu1 Co1 O3,mp-1212757,0.0,Co-Eu-O,3
245,EuFeO3,Perovskite,1.54,3.24,4.8,0.73,OER,1.7000000000000002,1.5599999999999996,Eu1 Fe1 O3,mp-504703,0.0,Eu-Fe-O,3
248,EuIrO3,Perovskite,0.53,1.68,3.76,0.69,OER,1.15,2.08,Eu1 Ir1 O3,mp-1184445,0.0,Eu-Ir-O,3
249,EuMnO3,Perovskite,1.49,2.74,4.72,0.8,OER,1.2500000000000002,1.9799999999999995,Eu1 Mn1 O3,mp-1099619,0.0,Eu-Mn-O,3
259,EuRhO3,Perovskite,0.01,1.43,3.17,0.83,OER,1.42,1.74,Eu1 Rh1 O3,mp-19801,0.0,Eu-O-Rh,3
260,EuRuO3,Perovskite,0.29,1.57,3.57,0.66,OER,1.28,1.9999999999999998,Eu1 Ru1 O3,mp-866036,0.0,Eu-O-Ru,3
272,Fe0.5Ir0.5O2,Bimetallic oxide,0.42,1.86,3.52,0.43,OER,1.4400000000000002,1.66,Fe0.5 Ir0.5 O2,,,,3
275,GdCoO3,Perovskite,1.22,2.98,4.33,0.83,OER,1.76,1.35,Gd1 Co1 O3,mp-20951,0.0,Co-Gd-O,3
278,GdFeO3,Perovskite,1.19,3.1,4.43,0.65,OER,1.9100000000000001,1.3299999999999996,Gd1 Fe1 O3,mp-600576,0.0,Fe-Gd-O,3
281,GdIrO3,Perovskite,0.49,1.71,3.72,0.65,OER,1.22,2.0100000000000002,Gd1 Ir1 O3,,,,3
282,GdMnO3,Perovskite,1.11,2.57,4.38,0.74,OER,1.4599999999999997,1.81,Gd1 Mn1 O3,mp-510575,0.4040999999999997,Gd-Mn-O,3
289,GdRhO3,Perovskite,0.07,1.44,3.26,0.75,OER,1.3699999999999999,1.8199999999999998,Gd1 Rh1 O3,mp-1184503,0.0,Gd-O-Rh,3
290,GdRuO3,Perovskite,0.37,1.62,3.65,0.63,OER,1.25,2.03,Gd1 Ru1 O3,,,,3
297,HfCoO3,Perovskite,1.14,2.91,4.25,0.86,OER,1.7700000000000002,1.3399999999999999,Hf1 Co1 O3,mp-753534,2.4865,Co-Hf-O,3
300,HfFeO3,Perovskite,1.22,3.08,4.41,0.69,OER,1.86,1.33,Hf1 Fe1 O3,mp-753856,2.9099000000000004,Fe-Hf-O,3
303,HfMnO3,Perovskite,1.13,2.59,4.34,0.78,OER,1.46,1.75,Hf1 Mn1 O3,mp-754657,2.6129000000000002,Hf-Mn-O,3
313,HoCoO3,Perovskite,1.29,2.95,4.37,0.87,OER,1.6600000000000001,1.42,Ho1 Co1 O3,mp-20570,0.0,Co-Ho-O,3
316,HoFeO3,Perovskite,1.25,3.07,4.44,0.67,OER,1.8199999999999998,1.3700000000000006,Ho1 Fe1 O3,mp-19785,1.5675,Fe-Ho-O,3
319,HoIrO3,Perovskite,0.37,1.5,3.59,0.67,OER,1.13,2.09,Ho1 Ir1 O3,,,,3
320,HoMnO3,Perovskite,1.2,2.58,4.37,0.76,OER,1.3800000000000001,1.79,Ho1 Mn1 O3,mp-1193069,0.4942000000000002,Ho-Mn-O,3
327,HoRhO3,Perovskite,-0.08,1.28,3.12,0.83,OER,1.36,1.84,Ho1 Rh1 O3,mp-1184833,0.0,Ho-O-Rh,3
328,HoRuO3,Perovskite,0.23,1.43,3.52,0.68,OER,1.2,2.09,Ho1 Ru1 O3,,,,3
338,IrO2,Bimetallic oxide,0.09,1.47,3.21,0.51,OER,1.38,1.74,Ir1 O2,,,,3
339,IrO2,Bimetallic oxide,0.08,1.56,3.27,0.48,OER,1.48,1.71,Ir1 O2,,,,3
340,IrO2,Bimetallic oxide,0.96,2.35,4.09,0.51,OER,1.3900000000000001,1.7399999999999998,Ir1 O2,,,,3
341,IrO2,Bimetallic oxide,0.46,2.12,3.57,0.42,OER,1.6600000000000001,1.4499999999999997,Ir1 O2,,,,3
345,KIrO3,Perovskite,1.05,2.55,4.14,0.67,OER,1.4999999999999998,1.5899999999999999,K1 Ir1 O3,mp-639811,0.0,Ir-K-O,3
346,KMnO3,Perovskite,1.85,3.34,4.98,0.75,OER,1.4899999999999998,1.6400000000000006,K1 Mn1 O3,mp-1184948,0.0,K-Mn-O,3
356,KRhO3,Perovskite,0.57,2.29,3.46,0.68,OER,1.7200000000000002,1.17,K1 Rh1 O3,mp-975134,0.0,K-O-Rh,3
357,KRuO3,Perovskite,1.23,2.86,4.16,0.4,OER,1.63,1.3000000000000003,K1 Ru1 O3,mp-973958,0.0,K-O-Ru,3
371,LaCoO3,Perovskite,0.4,2.43,3.51,0.8,OER,2.0300000000000002,1.0799999999999996,La1 Co1 O3,mp-1504268,0.9398,Co-La-O,3
374,LaFeO3,Perovskite,1.45,3.17,4.72,0.49,OER,1.72,1.5499999999999998,La1 Fe1 O3,mp-605340,1.4671999999999996,Fe-La-O,3
379,LaIrO3,Perovskite,0.14,1.69,3.41,0.72,OER,1.5499999999999998,1.7200000000000002,La1 Ir1 O3,,,,3
381,LaMnO3,Perovskite,1.11,2.38,4.43,0.82,OER,1.2699999999999998,2.05,La1 Mn1 O3,mp-1205375,0.0,La-Mn-O,3
391,LaRuO3,Perovskite,0.15,1.67,3.42,0.68,OER,1.52,1.75,La1 Ru1 O3,mp-20472,0.0,La-O-Ru,3
396,LaTiO3,Perovskite,-0.06,1.34,3.5,0.93,OER,1.4000000000000001,2.16,La1 Ti1 O3,mp-22013,0.0,La-O-Ti,3
408,LuCoO3,Perovskite,1.21,2.84,4.27,0.86,OER,1.63,1.4299999999999997,Lu1 Co1 O3,mp-550950,0.0,Co-Lu-O,3
411,LuFeO3,Perovskite,1.26,3.02,4.42,0.65,OER,1.76,1.4,Lu1 Fe1 O3,mp-1193395,0.0,Fe-Lu-O,3
414,LuIrO3,Perovskite,0.26,1.62,3.56,0.66,OER,1.36,1.94,Lu1 Ir1 O3,,,,3
415,LuMnO3,Perovskite,1.19,2.51,4.36,0.75,OER,1.3199999999999998,1.8500000000000005,Lu1 Mn1 O3,mp-18808,0.0,Lu-Mn-O,3
422,LuRhO3,Perovskite,-0.02,1.45,3.18,0.79,OER,1.47,1.7300000000000002,Lu1 Rh1 O3,mp-973681,0.0,Lu-O-Rh,3
423,LuRuO3,Perovskite,0.24,1.58,3.56,0.67,OER,1.34,1.98,Lu1 Ru1 O3,,,,3
433,Mo0.5Ir0.5O3,Bimetallic oxide,1.24,2.95,4.53,0.48,OER,1.7100000000000002,1.58,Mo0.5 Ir0.5 O3,,,,3
434,Mo0.5Ir0.5O3,Bimetallic oxide,0.86,2.58,3.85,0.49,OER,1.7200000000000002,1.27,Mo0.5 Ir0.5 O3,,,,3
435,Mo0.5Ir0.5O3,Bimetallic oxide,0.95,2.53,3.87,0.35,OER,1.5799999999999998,1.3400000000000003,Mo0.5 Ir0.5 O3,,,,3
436,Mo0.5Ir0.5O3,Bimetallic oxide,1.68,3.41,4.7,0.5,OER,1.7300000000000002,1.29,Mo0.5 Ir0.5 O3,,,,3
440,NaIrO3,Perovskite,0.82,2.05,3.88,0.73,OER,1.23,1.83,Na1 Ir1 O3,mp-1079568,0.0,Ir-Na-O,3
441,NaMnO3,Perovskite,1.82,3.18,4.95,0.78,OER,1.36,1.77,Na1 Mn1 O3,,,,3
443,NaNbO3,Perovskite,-0.6,0.71,2.9,0.97,OER,1.31,2.19,Na1 Nb1 O3,mp-558920,2.4364,Na-Nb-O,3
449,NaRhO3,Perovskite,0.35,1.89,3.23,0.81,OER,1.54,1.34,Na1 Rh1 O3,,,,3
450,NaRuO3,Perovskite,0.57,1.98,3.63,0.67,OER,1.4100000000000001,1.65,Na1 Ru1 O3,mp-977107,0.0,Na-O-Ru,3
465,NdFeO3,Perovskite,1.26,3.27,4.49,0.69,OER,2.01,1.2200000000000002,Nd1 Fe1 O3,mp-20407,1.0842,Fe-Nd-O,3
469,NdIrO3,Perovskite,0.44,1.68,3.72,0.7,OER,1.24,2.04,Nd1 Ir1 O3,,,,3
470,NdMnO3,Perovskite,1.19,2.75,4.44,0.81,OER,1.56,1.6900000000000004,Nd1 Mn1 O3,mp-1182197,0.0,Mn-Nd-O,3
480,NdRhO3,Perovskite,0.01,1.39,3.2,0.88,OER,1.38,1.8100000000000003,Nd1 Rh1 O3,mp-4582,0.6487000000000007,Nd-O-Rh,3
481,NdRuO3,Perovskite,0.34,1.59,3.63,0.7,OER,1.25,2.04,Nd1 Ru1 O3,,,,3
493,PbCoO3,Perovskite,1.51,3.04,4.59,0.99,OER,1.53,1.5499999999999998,Pb1 Co1 O3,mp-755569,0.0,Co-O-Pb,3
496,PbFeO3,Perovskite,1.54,3.26,4.71,0.82,OER,1.7199999999999998,1.4500000000000002,Pb1 Fe1 O3,mp-973579,0.0,Fe-O-Pb,3
498,PbIrO3,Perovskite,0.5,1.69,3.75,0.82,OER,1.19,2.06,Pb1 Ir1 O3,,,,3
500,PbMnO3,Perovskite,1.45,2.84,4.65,0.87,OER,1.39,1.8100000000000005,Pb1 Mn1 O3,mp-1106337,0.0,Mn-O-Pb,3
510,PbRhO3,Perovskite,-0.06,1.45,3.14,0.96,OER,1.51,1.6900000000000002,Pb1 Rh1 O3,,,,3
511,PbRuO3,Perovskite,0.27,1.58,3.55,0.78,OER,1.31,1.9699999999999998,Pb1 Ru1 O3,mp-974337,0.0,O-Pb-Ru,3
522,Pd0.5Ir0.5O2,Bimetallic oxide,0.83,2.46,3.84,0.4,OER,1.63,1.38,Pd0.5 Ir0.5 O2,,,,3
523,Pd0.5Ir0.5O2,Bimetallic oxide,0.48,1.95,3.68,0.5,OER,1.47,1.7300000000000002,Pd0.5 Ir0.5 O2,,,,3
524,Pd0.5Ir0.5O2,Bimetallic oxide,0.58,1.94,3.52,0.35,OER,1.3599999999999999,1.58,Pd0.5 Ir0.5 O2,,,,3
525,Pd0.5Ir0.5O2,Bimetallic oxide,0.57,2.23,3.73,0.43,OER,1.6600000000000001,1.5,Pd0.5 Ir0.5 O2,,,,3
526,Pd0.5Ir0.5O2,Bimetallic oxide,0.47,1.79,3.46,0.44,OER,1.32,1.67,Pd0.5 Ir0.5 O2,,,,3
527,Pd0.5Ir0.5O2,Bimetallic oxide,0.76,2.29,3.83,0.31,OER,1.53,1.54,Pd0.5 Ir0.5 O2,,,,3
528,Pd0.5Ir0.5O2,Bimetallic oxide,0.53,1.76,3.44,0.45,OER,1.23,1.68,Pd0.5 Ir0.5 O2,,,,3
531,PrCoO3,Perovskite,1.21,2.88,4.4,0.88,OER,1.67,1.5200000000000005,Pr1 Co1 O3,mp-20427,0.0,Co-O-Pr,3
534,PrFeO3,Perovskite,1.38,3.07,4.66,0.46,OER,1.69,1.5900000000000003,Pr1 Fe1 O3,mp-22341,1.0793000000000004,Fe-O-Pr,3
539,PrIrO3,Perovskite,0.37,1.58,3.6,0.7,OER,1.21,2.02,Pr1 Ir1 O3,,,,3
541,PrMnO3,Perovskite,1.04,2.26,4.36,0.87,OER,1.2199999999999998,2.1000000000000005,Pr1 Mn1 O3,mp-22564,0.0,Mn-O-Pr,3
549,PrRhO3,Perovskite,-0.08,1.37,3.12,0.85,OER,1.4500000000000002,1.75,Pr1 Rh1 O3,mp-4789,0.6013000000000002,O-Pr-Rh,3
550,PrRuO3,Perovskite,0.24,1.5,3.5,0.68,OER,1.26,2.0,Pr1 Ru1 O3,mp-20186,0.0,O-Pr-Ru,3
560,RbIrO3,Perovskite,0.9,2.2,4.06,0.73,OER,1.3000000000000003,1.8599999999999994,Rb1 Ir1 O3,mp-975284,0.0,Ir-O-Rb,3
561,RbMnO3,Perovskite,1.8,3.14,4.88,0.78,OER,1.34,1.7399999999999998,Rb1 Mn1 O3,mp-975346,0.0,Mn-O-Rb,3
570,RbRhO3,Perovskite,0.38,2.03,3.35,0.76,OER,1.65,1.3200000000000003,Rb1 Rh1 O3,mp-1186897,0.0,O-Rb-Rh,3
571,RbRuO3,Perovskite,0.66,2.13,3.76,0.65,OER,1.4699999999999998,1.63,Rb1 Ru1 O3,mp-975208,0.0,O-Rb-Ru,3
578,Rh0.5Ir0.5O2,Bimetallic oxide,0.84,2.24,3.85,0.38,OER,1.4000000000000004,1.6099999999999999,Rh0.5 Ir0.5 O2,,,,3
579,Rh0.5Ir0.5O2,Bimetallic oxide,0.29,1.76,3.2,0.49,OER,1.47,1.4400000000000002,Rh0.5 Ir0.5 O2,,,,3
580,Rh0.5Ir0.5O2,Bimetallic oxide,0.23,1.66,3.2,0.49,OER,1.43,1.5400000000000003,Rh0.5 Ir0.5 O2,,,,3
581,Rh0.5Pd0.5O2,Bimetallic oxide,1.0,2.67,3.93,0.44,OER,1.67,1.2600000000000002,Rh0.5 Pd0.5 O2,,,,3
582,Rh0.5Pd0.5O2,Bimetallic oxide,1.12,2.75,4.02,0.4,OER,1.63,1.2699999999999996,Rh0.5 Pd0.5 O2,,,,3
583,Rh0.5Pd0.5O2,Bimetallic oxide,1.13,2.76,4.0,0.4,OER,1.63,1.2400000000000002,Rh0.5 Pd0.5 O2,,,,3
584,Rh0.5Pt0.5O2,Bimetallic oxide,1.13,2.81,4.05,0.45,OER,1.6800000000000002,1.2399999999999998,Rh0.5 Pt0.5 O2,,,,3
586,ScIrO3,Perovskite,0.46,1.95,3.53,0.36,OER,1.49,1.5799999999999998,Sc1 Ir1 O3,,,,3
593,SmFeO3,Perovskite,1.15,3.2,4.45,0.71,OER,2.0500000000000003,1.25,Sm1 Fe1 O3,mp-1099588,0.7234999999999996,Fe-O-Sm,3
596,SmIrO3,Perovskite,0.52,1.69,3.79,0.7,OER,1.17,2.1,Sm1 Ir1 O3,,,,3
597,SmMnO3,Perovskite,1.08,2.67,4.37,0.8,OER,1.5899999999999999,1.7000000000000002,Sm1 Mn1 O3,mp-1075973,0.0,Mn-O-Sm,3
607,SmRhO3,Perovskite,0.02,1.36,3.22,0.88,OER,1.34,1.86,Sm1 Rh1 O3,mp-3317,0.7331000000000003,O-Rh-Sm,3
608,SmRuO3,Perovskite,0.36,1.57,3.69,0.7,OER,1.21,2.12,Sm1 Ru1 O3,,,,3
627,SrCrO3,Perovskite,1.49,2.72,4.8,0.85,OER,1.2300000000000002,2.0799999999999996,Sr1 Cr1 O3,mp-769855,0.6795,Cr-O-Sr,3
628,SrFeO3,Perovskite,2.09,3.71,5.21,0.79,OER,1.62,1.5,Sr1 Fe1 O3,mp-510624,0.0,Fe-O-Sr,3
636,SrIrO3,Perovskite,0.67,1.91,3.73,0.59,OER,1.2399999999999998,1.82,Sr1 Ir1 O3,mp-17097,0.0,Ir-O-Sr,3
637,SrMnO3,Perovskite,1.83,3.33,5.06,0.6,OER,1.5,1.7299999999999995,Sr1 Mn1 O3,mp-1218206,0.9515000000000002,Mn-O-Sr,3
650,SrRhO3,Perovskite,-0.04,1.93,2.93,0.76,OER,1.97,1.0000000000000002,Sr1 Rh1 O3,mp-1017441,0.0,O-Rh-Sr,3
651,SrRuO3,Perovskite,0.98,2.44,4.36,0.69,OER,1.46,1.9200000000000004,Sr1 Ru1 O3,mp-22534,0.0,O-Ru-Sr,3
652,SrSbO3,Perovskite,-0.69,1.26,2.88,0.81,OER,1.95,1.6199999999999999,Sr1 Sb1 O3,mp-1187192,0.0,O-Sb-Sr,3
664,SrVO3,Perovskite,1.01,2.23,4.45,0.99,OER,1.22,2.22,Sr1 V1 O3,mp-18717,0.0,O-Sr-V,3
673,TbCoO3,Perovskite,1.27,2.91,4.32,0.85,OER,1.6400000000000001,1.4100000000000001,Tb1 Co1 O3,mp-19802,1.4208999999999996,Co-O-Tb,3
676,TbFeO3,Perovskite,1.27,3.05,4.45,0.65,OER,1.7799999999999998,1.4000000000000004,Tb1 Fe1 O3,mp-19853,1.3449000000000004,Fe-O-Tb,3
680,TbIrO3,Perovskite,0.35,1.6,3.57,0.66,OER,1.25,1.9699999999999998,Tb1 Ir1 O3,,,,3
682,TbMnO3,Perovskite,1.2,2.55,4.4,0.75,OER,1.3499999999999999,1.8500000000000005,Tb1 Mn1 O3,mp-1188379,0.9344999999999999,Mn-O-Tb,3
690,TbRhO3,Perovskite,-0.03,1.4,3.14,0.77,OER,1.43,1.7400000000000002,Tb1 Rh1 O3,mp-5692,0.7745999999999995,O-Rh-Tb,3
691,TbRuO3,Perovskite,0.21,1.52,3.5,0.63,OER,1.31,1.98,Tb1 Ru1 O3,,,,3
699,ThCoO3,Perovskite,1.11,2.86,4.24,0.86,OER,1.7499999999999998,1.3800000000000003,Th1 Co1 O3,,,,3
702,ThFeO3,Perovskite,1.2,3.01,4.41,0.66,OER,1.8099999999999998,1.4000000000000004,Th1 Fe1 O3,,,,3
705,ThMnO3,Perovskite,1.09,2.49,4.35,0.78,OER,1.4000000000000001,1.8599999999999994,Th1 Mn1 O3,,,,3
715,TlCoO3,Perovskite,1.69,3.01,4.71,0.95,OER,1.3199999999999998,1.7000000000000002,Tl1 Co1 O3,mp-770614,0.1429999999999998,Co-O-Tl,3
718,TlFeO3,Perovskite,1.73,3.25,4.86,0.75,OER,1.52,1.6100000000000003,Tl1 Fe1 O3,mp-505819,0.2865000000000002,Fe-O-Tl,3
721,TlIrO3,Perovskite,0.48,1.69,3.69,0.74,OER,1.21,2.0,Tl1 Ir1 O3,,,,3
722,TlMnO3,Perovskite,1.62,2.86,4.8,0.8,OER,1.2399999999999998,1.94,Tl1 Mn1 O3,mp-753819,0.0,Mn-O-Tl,3
732,TlRhO3,Perovskite,0.02,1.48,3.13,0.84,OER,1.46,1.65,Tl1 Rh1 O3,,,,3
733,TlRuO3,Perovskite,0.3,1.58,3.53,0.69,OER,1.28,1.9499999999999997,Tl1 Ru1 O3,,,,3
744,TmCoO3,Perovskite,1.37,3.13,4.45,0.86,OER,1.7599999999999998,1.3200000000000003,Tm1 Co1 O3,mp-561954,1.1885999999999997,Co-O-Tm,3
747,TmFeO3,Perovskite,1.32,3.26,4.51,0.67,OER,1.9399999999999997,1.25,Tm1 Fe1 O3,mp-20651,1.37,Fe-O-Tm,3
750,TmIrO3,Perovskite,0.59,1.84,3.85,0.65,OER,1.25,2.01,Tm1 Ir1 O3,,,,3
751,TmMnO3,Perovskite,1.25,2.76,4.42,0.73,OER,1.5099999999999998,1.6600000000000001,Tm1 Mn1 O3,mp-554211,0.0,Mn-O-Tm,3
761,TmRhO3,Perovskite,0.11,1.54,3.32,0.73,OER,1.43,1.7799999999999998,Tm1 Rh1 O3,mp-1207705,0.9564999999999992,O-Rh-Tm,3
762,TmRuO3,Perovskite,0.39,1.72,3.7,0.62,OER,1.33,1.9800000000000002,Tm1 Ru1 O3,,,,3
777,YbCoO3,Perovskite,1.58,3.12,4.69,0.93,OER,1.54,1.5700000000000003,Yb1 Co1 O3,mp-687081,0.0,Co-O-Yb,3
780,YbFeO3,Perovskite,1.58,3.35,4.81,0.72,OER,1.77,1.4599999999999995,Yb1 Fe1 O3,mp-19793,0.0,Fe-O-Yb,3
784,YbIrO3,Perovskite,0.52,1.79,3.76,0.68,OER,1.27,1.9699999999999998,Yb1 Ir1 O3,,,,3
785,YbMnO3,Perovskite,1.49,2.85,4.72,0.77,OER,1.36,1.8699999999999997,Yb1 Mn1 O3,mp-19356,0.0,Mn-O-Yb,3
795,YbRhO3,Perovskite,0.07,1.53,3.2,0.8,OER,1.46,1.6700000000000002,Yb1 Rh1 O3,mp-1207518,0.0,O-Rh-Yb,3
796,YbRuO3,Perovskite,0.34,1.69,3.61,0.65,OER,1.3499999999999999,1.92,Yb1 Ru1 O3,,,,3
808,YCoO3,Perovskite,1.5,3.13,4.45,0.81,OER,1.63,1.3200000000000003,Y1 Co1 O3,mp-1330514,0.007299999999999862,Co-O-Y,3
811,YFeO3,Perovskite,1.59,3.42,4.73,0.6,OER,1.8299999999999998,1.3100000000000005,Y1 Fe1 O3,mp-1275986,0.0,Fe-O-Y,3
814,YIrO3,Perovskite,0.65,2.14,3.79,0.56,OER,1.4900000000000002,1.65,Y1 Ir1 O3,,,,3
815,YMnO3,Perovskite,1.48,2.96,4.68,0.64,OER,1.48,1.7199999999999998,Y1 Mn1 O3,mp-19385,0.0,Mn-O-Y,3
822,YRhO3,Perovskite,0.8,2.3,3.77,0.26,OER,1.4999999999999998,1.4700000000000002,Y1 Rh1 O3,mp-1207629,0.8142000000000005,O-Rh-Y,3
823,YRuO3,Perovskite,0.57,2.08,3.77,0.55,OER,1.5100000000000002,1.69,Y1 Ru1 O3,,,,3